 Gaussian 09, Revision E.01,
 Gaussian 09:  ES64L-G09RevE.01 30-Nov-2015

 ----------------------------------------------------------------------
 #p geom=AllCheck freq=raman b3lyp/def2svp nosymm int=ultrafine empiric
 aldispersion=GD3BJ
 ----------------------------------------------------------------------

 Structure from the checkpoint file:  "freq-cas_106-45-6.chk"
 -------
 comment
 -------
 Charge =  0 Multiplicity = 1

                          Input orientation:
 ---------------------------------------------------------------------
 Center     Atomic      Atomic             Coordinates (Angstroms)
 Number     Number       Type             X           Y           Z
 ---------------------------------------------------------------------
      1          6           0        0.356438    1.807928    0.101598
      2          6           0        1.120085    0.635976    0.032892
      3          6           0        0.522167   -0.625758   -0.012461
      4          6           0       -0.873160   -0.746450    0.010201
      5          6           0       -1.652124    0.420617    0.078852
      6          6           0       -1.041196    1.671406    0.123336
      7         16           0       -1.720215   -2.310364   -0.044244
      8          1           0       -0.615568   -3.086579   -0.098844
      9          1           0        1.150590   -1.518027   -0.065945
     10          1           0       -2.742336    0.347102    0.097333
     11          1           0        2.211207    0.705654    0.013973
     12          1           0       -1.667868    2.566384    0.176424
     13          6           0        0.999833    3.170393    0.152078
     14          1           0        2.096693    3.099815    0.113277
     15          1           0        0.730071    3.707430    1.076869
     16          1           0        0.672945    3.800197   -0.692098
 ---------------------------------------------------------------------

 SCF Done:  E(RB3LYP) =  -669.483609313     A.U. after   14 cycles

 Alpha  occ. eigenvalues --  -88.84974 -10.22125 -10.19531 -10.19518 -10.19432
 Alpha  occ. eigenvalues --  -10.19191 -10.19140 -10.18967  -7.94482  -5.91420
 Alpha  occ. eigenvalues --   -5.91024  -5.90369  -0.85940  -0.79291  -0.74181
 Alpha  occ. eigenvalues --   -0.73011  -0.66085  -0.60928  -0.57646  -0.50020
 Alpha  occ. eigenvalues --   -0.47583  -0.45452  -0.42497  -0.42168  -0.41636
 Alpha  occ. eigenvalues --   -0.39021  -0.37233  -0.36989  -0.34615  -0.33507
 Alpha  occ. eigenvalues --   -0.29047  -0.25941  -0.21399
 Alpha virt. eigenvalues --   -0.01372  -0.00718   0.01747   0.06011   0.07927
 Alpha virt. eigenvalues --    0.09155   0.10579   0.11863   0.12842   0.14707
 Alpha virt. eigenvalues --    0.15811   0.16964   0.22418   0.26568   0.29216

 Mulliken charges:
               1
     1  C   -0.038471
     2  C   -0.012813
     3  C    0.005978
     4  C   -0.047856
     5  C    0.018365
     6  C   -0.013663
     7  S    0.010978
     8  H    0.055450
     9  H   -0.032327
    10  H   -0.020632
    11  H   -0.030265
    12  H   -0.029339
    13  C    0.079436
    14  H    0.005188
    15  H    0.025259
    16  H    0.024714
 Sum of Mulliken charges =  -0.00000

 Dipole moment (field-independent basis, Debye):
    X=              1.1132    Y=              0.5375    Z=              0.0062  Tot=              1.2362
 Quadrupole moment (field-independent basis, Debye-Ang):
   XX=            -53.7670   YY=            -48.8799   ZZ=            -59.0796
   XY=             -3.0641   XZ=             -0.2137   YZ=              0.5401

  Exact polarizability:  97.405  14.710 128.018  -0.368   3.500  45.071
 Approx polarizability: 163.483  13.499 192.778  -1.244   5.354  69.723

                      1                      2                      3
                      A                      A                      A
 Frequencies --     20.2522               101.2337               123.1717
 Red. masses --      1.0552                 1.4357                 2.1162
 Frc consts  --      0.0003                 0.0087                 0.0189
 IR Inten    --      0.5285                11.6510                 6.7818
 Raman Activ --      0.4733                 4.9565                 1.5128

                      4                      5                      6
                      A                      A                      A
 Frequencies --    238.4812               302.9920               370.7509
 Red. masses --      4.2555                 3.8716                 2.8332
 Frc consts  --      0.1426                 0.2094                 0.2295
 IR Inten    --      0.8697                 0.0361                 1.2654
 Raman Activ --      0.1293                 1.6671                 0.2148

                      7                      8                      9
                      A                      A                      A
 Frequencies --    381.2441               416.8062               503.3405
 Red. masses --      7.6695                 2.8740                 2.5378
 Frc consts  --      0.6568                 0.2942                 0.3788
 IR Inten    --      0.4052                 0.1945                16.1627
 Raman Activ --      7.2813                 0.0544                 0.0839

                     10                     11                     12
                      A                      A                      A
 Frequencies --    637.3710               653.0162               728.4731
 Red. masses --      5.3976                 6.9297                 3.0453
 Frc consts  --      1.2919                 1.7411                 0.9522
 IR Inten    --      5.3345                 0.0030                 0.2743
 Raman Activ --      1.5239                 5.6111                 0.4906

                     13                     14                     15
                      A                      A                      A
 Frequencies --    819.1617               823.5361               844.5423
 Red. masses --      5.0203                 1.4200                 1.2674
 Frc consts  --      1.9848                 0.5674                 0.5326
 IR Inten    --      2.5814                26.4028                 1.1474
 Raman Activ --     22.1723                 0.1690                 3.3972

                     16                     17                     18
                      A                      A                      A
 Frequencies --    931.3175               966.6077               989.9372
 Red. masses --      1.1292                 1.3230                 1.3595
 Frc consts  --      0.5771                 0.7283                 0.7849
 IR Inten    --      7.6385                 0.4553                 0.0635
 Raman Activ --     12.3706                 1.6652                 0.2091

                     19                     20                     21
                      A                      A                      A
 Frequencies --    998.7641              1030.3925              1053.5653
 Red. masses --      1.3841                 3.0340                 1.5669
 Frc consts  --      0.8135                 1.8979                 1.0247
 IR Inten    --      3.2039                 7.5128                 3.5726
 Raman Activ --      4.8443                 0.4278                 0.2613

                     22                     23                     24
                      A                      A                      A
 Frequencies --   1124.6933              1137.2390              1199.0949
 Red. masses --      3.1354                 1.3176                 1.1110
 Frc consts  --      2.3368                 1.0040                 0.9412
 IR Inten    --     30.8030                11.7794                 0.1189
 Raman Activ --     37.5709                 2.8191                 7.6449

                     25                     26                     27
                      A                      A                      A
 Frequencies --   1241.9878              1320.8917              1345.8383
 Red. masses --      2.7416                 1.2958                 6.7470
 Frc consts  --      2.4917                 1.3321                 7.2003
 IR Inten    --      2.3576                 1.4708                 4.1029
 Raman Activ --      9.9783                 1.3284                 4.9134

                     28                     29                     30
                      A                      A                      A
 Frequencies --   1397.7216              1437.0752              1457.2693
 Red. masses --      1.2930                 2.2507                 1.0417
 Frc consts  --      1.4883                 2.7385                 1.3034
 IR Inten    --      0.3441                 0.5768                 5.9728
 Raman Activ --     43.8270                 2.0470                19.4282

                     31                     32                     33
                      A                      A                      A
 Frequencies --   1469.8776              1530.5890              1621.4384
 Red. masses --      1.2361                 2.5949                 6.3960
 Frc consts  --      1.5735                 3.5817                 9.9073
 IR Inten    --     11.8424                58.6593                 0.8093
 Raman Activ --     14.8395                 0.7176                 3.7597

                     34                     35                     36
                      A                      A                      A
 Frequencies --   1666.8083              2683.2709              3025.4509
 Red. masses --      6.2966                 1.0384                 1.0381
 Frc consts  --     10.3069                 4.4050                 5.5986
 IR Inten    --      7.0516                 2.3622                32.7891
 Raman Activ --     91.6262               120.6667               268.1401

                     37                     38                     39
                      A                      A                      A
 Frequencies --   3091.0615              3123.9486              3166.2372
 Red. masses --      1.1022                 1.1027                 1.0884
 Frc consts  --      6.2049                 6.3403                 6.4288
 IR Inten    --     13.9794                12.1129                11.1446
 Raman Activ --    116.6220                69.1150                55.3066

                     40                     41                     42
                      A                      A                      A
 Frequencies --   3168.2942              3183.9709              3186.4164
 Red. masses --      1.0882                 1.0953                 1.0962
 Frc consts  --      6.4358                 6.5423                 6.5579
 IR Inten    --      8.5318                19.7106                 0.0870
 Raman Activ --     79.4650                 1.9201               264.9891

 - Thermochemistry -
 -------------------
 Temperature   298.150 Kelvin.  Pressure   1.00000 Atm.
 Atom     1 has atomic number  6 and mass  12.00000

 Molecular mass:   124.03467 amu.
 Principal axes and moments of inertia in atomic units:
                           1         2         3
     Eigenvalues --   332.743521871.303332192.74179
           X            0.43963   0.89796   0.01995
           Y            0.89760  -0.43845  -0.04557
           Z            0.03217  -0.03794   0.99876
 This molecule is an asymmetric top.
 Rotational symmetry number  1.
 Rotational temperatures (Kelvin)      0.26030     0.04629     0.03950
 Rotational constants (GHZ):           5.42382     0.96443     0.82305
 Zero-point vibrational energy     332048.2 (Joules/Mol)
                                   79.36144 (Kcal/Mol)
 Warning -- explicit consideration of   9 degrees of freedom as
           vibrations may cause significant error
 Vibrational temperatures:     29.14   145.65   177.22   343.12   435.94
          (Kelvin)            533.43   548.52   599.69   724.19   917.03
                              939.54  1048.11  1178.59  1184.88  1215.11
                             1339.96  1390.73  1424.30  1437.00  1482.50
                             1515.84  1618.18  1636.23  1725.23  1786.94
                             1900.47  1936.36  2011.01  2067.63  2096.68
                             2114.82  2202.17  2332.89  2398.16  3860.62
                             4352.94  4447.34  4494.66  4555.50  4558.46
                             4581.02  4584.54

 Zero-point correction=                           0.126470 (Hartree/Particle)
 Thermal correction to Energy=                    0.134671
 Thermal correction to Enthalpy=                  0.135615
 Thermal correction to Gibbs Free Energy=         0.092134
 Sum of electronic and zero-point Energies=           -669.357139
 Sum of electronic and thermal Energies=              -669.348938
 Sum of electronic and thermal Enthalpies=            -669.347994
 Sum of electronic and thermal Free Energies=         -669.391476

                     E (Thermal)             CV                S
                      KCal/Mol        Cal/Mol-Kelvin    Cal/Mol-Kelvin
 Total                   84.507             29.453             91.515
 Electronic               0.000              0.000              0.000
 Translational            0.889              2.981             40.360
 Rotational               0.889              2.981             28.703
 Vibrational             82.730             23.492             22.451
 Vibration     1          0.593              1.986              6.609
 Vibration     2          0.604              1.948              3.430
 Vibration     3          0.610              1.930              3.050
 Vibration     4          0.656              1.782              1.814
 Vibration     5          0.694              1.668              1.400
 Vibration     6          0.743              1.532              1.077
 Vibration     7          0.751              1.510              1.034
 Vibration     8          0.780              1.434              0.903
 Vibration     9          0.859              1.243              0.650

 Optimization completed.
    -- Stationary point found.
 Normal termination of Gaussian 09 at Thu Jul  9 20:43:09 2020.
