 Gaussian 09, Revision E.01,
 Gaussian 09:  ES64L-G09RevE.01 30-Nov-2015

 ----------------------------------------------------------------------
 #p geom=AllCheck freq=raman b3lyp/def2svp nosymm int=ultrafine empiric
 aldispersion=GD3BJ
 ----------------------------------------------------------------------

 Structure from the checkpoint file:  "freq-cas_19552-08-0_spid_194696.chk"
 -------
 comment
 -------
 Charge =  0 Multiplicity = 1

                          Input orientation:
 ---------------------------------------------------------------------
 Center     Atomic      Atomic             Coordinates (Angstroms)
 Number     Number       Type             X           Y           Z
 ---------------------------------------------------------------------
      1         16           0        2.402529    0.686562    1.809610
      2          6           0        1.534181    0.494665    0.184581
      3          6           0        1.038735   -0.930597    0.038046
      4          6           0        0.264755    1.309092    0.043673
      5          6           0       -0.356353   -0.936173   -0.179098
      6          6           0       -0.836655    0.453160   -0.176819
      7          6           0        1.757080   -2.120361    0.094126
      8          6           0        0.090450    2.687745    0.096798
      9          6           0       -1.036332   -2.144080   -0.353747
     10          6           0       -2.118932    0.981087   -0.347748
     11          6           0        1.071469   -3.330134   -0.079504
     12          6           0       -1.195919    3.215541   -0.075131
     13          6           0       -0.311567   -3.339549   -0.302474
     14          6           0       -2.289753    2.368258   -0.295631
     15          1           0        2.260033    0.742749   -0.606602
     16          1           0        2.833639   -2.109901    0.279474
     17          1           0        0.939096    3.352242    0.278600
     18          1           0       -2.115256   -2.157904   -0.524809
     19          1           0       -2.975041    0.324170   -0.518600
     20          1           0        1.619636   -4.274207   -0.038094
     21          1           0       -1.348079    4.296625   -0.034467
     22          1           0       -0.830228   -4.292108   -0.434914
     23          1           0       -3.286548    2.796284   -0.425969
     24          1           0        2.888859    1.926934    1.568700
 ---------------------------------------------------------------------

 SCF Done:  E(RB3LYP) =  -899.200128444     A.U. after   14 cycles

 Alpha  occ. eigenvalues --  -88.84095 -10.23205 -10.19958 -10.19813 -10.19797
 Alpha  occ. eigenvalues --  -10.19754 -10.19684 -10.19606 -10.19593 -10.19592
 Alpha  occ. eigenvalues --  -10.19556 -10.19539 -10.19506 -10.19458  -7.93543
 Alpha  occ. eigenvalues --   -5.90491  -5.90137  -5.89368  -0.89014  -0.84281
 Alpha  occ. eigenvalues --   -0.80763  -0.77160  -0.74118  -0.73224  -0.71261
 Alpha  occ. eigenvalues --   -0.66103  -0.63076  -0.58571  -0.57710  -0.57642
 Alpha  occ. eigenvalues --   -0.51921  -0.49779  -0.48413  -0.46473  -0.45097
 Alpha  occ. eigenvalues --   -0.44316  -0.43651  -0.42676  -0.41967  -0.40409
 Alpha  occ. eigenvalues --   -0.38588  -0.36639  -0.36338  -0.36002  -0.34741
 Alpha  occ. eigenvalues --   -0.34004  -0.33524  -0.29111  -0.26308  -0.25397
 Alpha  occ. eigenvalues --   -0.23762  -0.22460
 Alpha virt. eigenvalues --   -0.04389  -0.03220  -0.00543   0.02193   0.03112
 Alpha virt. eigenvalues --    0.06062   0.06641   0.07451   0.09111   0.09622
 Alpha virt. eigenvalues --    0.11262   0.12072   0.13464   0.14363   0.16225

 Mulliken charges:
               1
     1  S   -0.029024
     2  C   -0.055019
     3  C   -0.022056
     4  C    0.044343
     5  C    0.098412
     6  C    0.087835
     7  C   -0.012568
     8  C   -0.026452
     9  C   -0.049946
    10  C   -0.048354
    11  C    0.023628
    12  C    0.022181
    13  C    0.031220
    14  C    0.029575
    15  H    0.055959
    16  H   -0.027363
    17  H   -0.041025
    18  H   -0.032058
    19  H   -0.032192
    20  H   -0.015361
    21  H   -0.016847
    22  H   -0.016870
    23  H   -0.017324
    24  H    0.049306
 Sum of Mulliken charges =  -0.00000

 Dipole moment (field-independent basis, Debye):
    X=             -0.1206    Y=              0.5221    Z=             -1.0727  Tot=              1.1991
 Quadrupole moment (field-independent basis, Debye-Ang):
   XX=            -81.1991   YY=            -77.8415   ZZ=            -95.2844
   XY=              2.3095   XZ=             -0.0653   YZ=              1.0321

  Exact polarizability: 167.750 -15.004 214.378  24.241   8.099  79.820
 Approx polarizability: 287.970 -13.254 336.988  37.269  10.946 131.319

                      1                      2                      3
                      A                      A                      A
 Frequencies --     65.0201               110.6328               120.2814
 Red. masses --      4.2842                 5.1584                 5.2542
 Frc consts  --      0.0107                 0.0372                 0.0448
 IR Inten    --      0.2243                 2.1592                 0.3478
 Raman Activ --      4.5193                 0.7115                 1.8528

                      4                      5                      6
                      A                      A                      A
 Frequencies --    168.7422               211.2961               214.5263
 Red. masses --      4.9717                 2.1904                 1.5159
 Frc consts  --      0.0834                 0.0576                 0.0411
 IR Inten    --      0.4139                 8.2062                10.8795
 Raman Activ --      2.8603                 2.1894                 9.0082

                      7                      8                      9
                      A                      A                      A
 Frequencies --    299.7871               322.5324               425.3379
 Red. masses --      4.4647                 5.7284                 5.9634
 Frc consts  --      0.2364                 0.3511                 0.6356
 IR Inten    --      0.0659                 1.6481                 0.3924
 Raman Activ --      5.6005                 3.0838                 6.5759

                     10                     11                     12
                      A                      A                      A
 Frequencies --    437.9387               460.6467               492.1502
 Red. masses --      3.2101                 2.9623                 4.8167
 Frc consts  --      0.3627                 0.3704                 0.6874
 IR Inten    --      4.6622                 0.1150                 0.2525
 Raman Activ --      0.1104                 1.2987                10.0272

                     13                     14                     15
                      A                      A                      A
 Frequencies --    520.0919               576.5921               588.5783
 Red. masses --      4.8280                 4.0648                 3.7521
 Frc consts  --      0.7695                 0.7962                 0.7658
 IR Inten    --      0.1355                 0.0644                 0.0473
 Raman Activ --      2.7460                 4.3420                 1.8202

                     16                     17                     18
                      A                      A                      A
 Frequencies --    636.4089               653.2611               708.1355
 Red. masses --      6.8232                 4.4761                 4.5473
 Frc consts  --      1.6282                 1.1254                 1.3435
 IR Inten    --      6.3723                 4.8597                11.2931
 Raman Activ --      0.5415                 0.5932                21.9038

                     19                     20                     21
                      A                      A                      A
 Frequencies --    760.9890               763.6987               768.5120
 Red. masses --      1.5105                 1.4313                 4.1757
 Frc consts  --      0.5154                 0.4918                 1.4531
 IR Inten    --     42.3558                28.4098                 8.3587
 Raman Activ --      1.1655                 1.0408                11.0493

                     22                     23                     24
                      A                      A                      A
 Frequencies --    800.2993               816.5856               833.2130
 Red. masses --      2.2102                 2.3591                 2.7784
 Frc consts  --      0.8340                 0.9268                 1.1365
 IR Inten    --      3.0170                 0.4791                 1.1321
 Raman Activ --      2.8180                 0.1931                 1.2504

                     25                     26                     27
                      A                      A                      A
 Frequencies --    881.2176               896.3350               906.9182
 Red. masses --      4.1798                 1.3928                 1.7506
 Frc consts  --      1.9124                 0.6593                 0.8484
 IR Inten    --      3.1351                 0.4714                 0.5056
 Raman Activ --     19.8001                 5.4851                 2.4144

                     28                     29                     30
                      A                      A                      A
 Frequencies --    958.3280               974.3532               982.8594
 Red. masses --      1.4883                 1.4447                 1.4666
 Frc consts  --      0.8053                 0.8081                 0.8347
 IR Inten    --      0.4356                 0.6112                 1.3423
 Raman Activ --      9.1309                 2.0630                 2.0500

                     31                     32                     33
                      A                      A                      A
 Frequencies --   1016.7217              1019.8799              1029.3088
 Red. masses --      1.3442                 1.3435                 6.6665
 Frc consts  --      0.8187                 0.8233                 4.1614
 IR Inten    --      0.0611                 0.0622                 1.9093
 Raman Activ --      0.4842                 0.4907                 1.1207

                     34                     35                     36
                      A                      A                      A
 Frequencies --   1048.9204              1052.2714              1115.2713
 Red. masses --      2.0589                 1.8091                 1.8047
 Frc consts  --      1.3346                 1.1802                 1.3225
 IR Inten    --      0.6089                 6.0340                 2.6802
 Raman Activ --     49.1843                 0.5698                 6.5494

                     37                     38                     39
                      A                      A                      A
 Frequencies --   1127.0145              1160.8698              1167.6441
 Red. masses --      1.5038                 1.2427                 1.1327
 Frc consts  --      1.1254                 0.9867                 0.9099
 IR Inten    --      0.3686                 3.5840                 1.4391
 Raman Activ --      0.6089                12.0146                 8.9412

                     40                     41                     42
                      A                      A                      A
 Frequencies --   1170.1433              1181.8641              1212.5338
 Red. masses --      1.1092                 1.2597                 2.5386
 Frc consts  --      0.8948                 1.0367                 2.1991
 IR Inten    --      2.6532                 1.5265                 8.6320
 Raman Activ --     24.5819                 5.8138                28.8481

                     43                     44                     45
                      A                      A                      A
 Frequencies --   1221.1859              1256.6081              1316.6969
 Red. masses --      2.5100                 2.2951                 1.5625
 Frc consts  --      2.2054                 2.1352                 1.5960
 IR Inten    --      2.3213                 0.7310                 1.2856
 Raman Activ --     30.3873               111.4406                 1.0884

                     46                     47                     48
                      A                      A                      A
 Frequencies --   1322.1624              1366.7020              1405.0682
 Red. masses --      2.0590                 7.1668                 4.4745
 Frc consts  --      2.1207                 7.8873                 5.2047
 IR Inten    --      0.3323                 7.2852                 0.3526
 Raman Activ --    167.3430                 8.7832                23.4117

                     49                     50                     51
                      A                      A                      A
 Frequencies --   1482.4147              1484.2583              1514.1115
 Red. masses --      2.7983                 2.4398                 2.8977
 Frc consts  --      3.6231                 3.1668                 3.9140
 IR Inten    --     11.5584                24.8006                 4.3416
 Raman Activ --     12.2678                 0.4568                 6.6595

                     52                     53                     54
                      A                      A                      A
 Frequencies --   1519.9722              1640.2162              1643.1893
 Red. masses --      3.6573                 6.2804                 6.9894
 Frc consts  --      4.9783                 9.9550                11.1190
 IR Inten    --      0.1897                 1.1378                 0.2052
 Raman Activ --    128.2305                17.0069                 0.9865

                     55                     56                     57
                      A                      A                      A
 Frequencies --   1669.7026              1671.4459              2660.0804
 Red. masses --      7.0241                 7.3285                 1.0385
 Frc consts  --     11.5377                12.0628                 4.3294
 IR Inten    --      0.6080                 4.0382                11.8334
 Raman Activ --    415.2471                43.5492               174.0016

                     58                     59                     60
                      A                      A                      A
 Frequencies --   3063.6685              3172.0160              3175.0591
 Red. masses --      1.0863                 1.0869                 1.0865
 Frc consts  --      6.0072                 6.4435                 6.4531
 IR Inten    --      4.2624                 3.2824                 1.1792
 Raman Activ --    113.4018                28.7821                54.3329

                     61                     62                     63
                      A                      A                      A
 Frequencies --   3178.6835              3183.8439              3188.7592
 Red. masses --      1.0896                 1.0901                 1.0942
 Frc consts  --      6.4864                 6.5108                 6.5555
 IR Inten    --      2.7392                 2.9661                11.3588
 Raman Activ --     79.1423                97.5297               117.6690

                     64                     65                     66
                      A                      A                      A
 Frequencies --   3192.0041              3199.4505              3200.8478
 Red. masses --      1.0949                 1.0989                 1.0990
 Frc consts  --      6.5728                 6.6277                 6.6340
 IR Inten    --     18.9118                25.2516                11.5565
 Raman Activ --     70.4922               199.4279               455.2266

 - Thermochemistry -
 -------------------
 Temperature   298.150 Kelvin.  Pressure   1.00000 Atm.
 Atom     1 has atomic number 16 and mass  31.97207

 Molecular mass:   198.05032 amu.
 Principal axes and moments of inertia in atomic units:
                           1         2         3
     Eigenvalues --  1900.902713190.580064894.78294
           X           -0.34042   0.85769  -0.38532
           Y            0.94024   0.31383  -0.13212
           Z           -0.00761   0.40727   0.91327
 This molecule is an asymmetric top.
 Rotational symmetry number  1.
 Warning -- assumption of classical behavior for rotation
           may cause significant error
 Rotational temperatures (Kelvin)      0.04556     0.02715     0.01770
 Rotational constants (GHZ):           0.94941     0.56565     0.36871
 Zero-point vibrational energy     492776.9 (Joules/Mol)
                                  117.77650 (Kcal/Mol)
 Warning -- explicit consideration of  15 degrees of freedom as
           vibrations may cause significant error
 Vibrational temperatures:     93.55   159.18   173.06   242.78   304.01
          (Kelvin)            308.66   431.33   464.05   611.97   630.10
                              662.77   708.09   748.30   829.59   846.83
                              915.65   939.90  1018.85  1094.89  1098.79
                             1105.72  1151.45  1174.88  1198.81  1267.87
                             1289.62  1304.85  1378.82  1401.88  1414.11
                             1462.83  1467.38  1480.94  1509.16  1513.98
                             1604.62  1621.52  1670.23  1679.98  1683.57
                             1700.44  1744.56  1757.01  1807.98  1894.43
                             1902.29  1966.38  2021.58  2132.86  2135.51
                             2178.47  2186.90  2359.90  2364.18  2402.33
                             2404.83  3827.26  4407.93  4563.82  4568.20
                             4573.41  4580.84  4587.91  4592.58  4603.29
                             4605.30

 Zero-point correction=                           0.187689 (Hartree/Particle)
 Thermal correction to Energy=                    0.198392
 Thermal correction to Enthalpy=                  0.199336
 Thermal correction to Gibbs Free Energy=         0.150793
 Sum of electronic and zero-point Energies=           -899.012440
 Sum of electronic and thermal Energies=              -899.001736
 Sum of electronic and thermal Enthalpies=            -899.000792
 Sum of electronic and thermal Free Energies=         -899.049336

                     E (Thermal)             CV                S
                      KCal/Mol        Cal/Mol-Kelvin    Cal/Mol-Kelvin
 Total                  124.493             43.500            102.168
 Electronic               0.000              0.000              0.000
 Translational            0.889              2.981             41.755
 Rotational               0.889              2.981             31.763
 Vibrational            122.715             37.538             28.651
 Vibration     1          0.597              1.971              4.299
 Vibration     2          0.606              1.941              3.258
 Vibration     3          0.609              1.932              3.096
 Vibration     4          0.625              1.881              2.449
 Vibration     5          0.643              1.824              2.032
 Vibration     6          0.644              1.819              2.005
 Vibration     7          0.692              1.674              1.418
 Vibration     8          0.708              1.630              1.297
 Vibration     9          0.787              1.415              0.874
 Vibration    10          0.798              1.387              0.833
 Vibration    11          0.818              1.337              0.764
 Vibration    12          0.848              1.267              0.678
 Vibration    13          0.875              1.206              0.610
 Vibration    14          0.933              1.082              0.492
 Vibration    15          0.946              1.056              0.470

 Optimization completed.
    -- Stationary point found.
 Normal termination of Gaussian 09 at Thu Jul  9 20:56:39 2020.
