 Gaussian 09, Revision E.01,
 Gaussian 09:  ES64L-G09RevE.01 30-Nov-2015

 ----------------------------------------------------------------------
 #p geom=AllCheck freq=raman b3lyp/def2svp nosymm int=ultrafine empiric
 aldispersion=GD3BJ
 ----------------------------------------------------------------------

 Structure from the checkpoint file:  "freq-cas_1679-07-8_spid_14757.chk"
 -------
 comment
 -------
 Charge =  0 Multiplicity = 1

                          Input orientation:
 ---------------------------------------------------------------------
 Center     Atomic      Atomic             Coordinates (Angstroms)
 Number     Number       Type             X           Y           Z
 ---------------------------------------------------------------------
      1         16           0       -1.221127   -1.485229   -1.947803
      2          6           0       -0.609350   -0.735072   -0.389879
      3          6           0        0.918092   -0.854458   -0.290181
      4          6           0       -0.843357    0.770768   -0.237626
      5          6           0        1.314760    0.178880    0.791402
      6          6           0        0.114329    1.164207    0.901998
      7          1           0       -1.073210   -1.270844    0.455119
      8          1           0        1.249662   -1.877939   -0.061541
      9          1           0        1.356619   -0.578118   -1.264074
     10          1           0       -1.895313    1.025135   -0.034859
     11          1           0       -0.558856    1.266010   -1.180875
     12          1           0        2.248058    0.695081    0.520955
     13          1           0        1.499578   -0.316005    1.757131
     14          1           0        0.423298    2.218282    0.837525
     15          1           0       -0.388468    1.041320    1.874529
     16          1           0       -2.534715   -1.242019   -1.731822
 ---------------------------------------------------------------------

 SCF Done:  E(RB3LYP) =  -594.520145851     A.U. after   12 cycles

 Alpha  occ. eigenvalues --  -88.82903 -10.21423 -10.18839 -10.18633 -10.18597
 Alpha  occ. eigenvalues --  -10.18579  -7.92410  -5.89344  -5.88992  -5.88262
 Alpha  occ. eigenvalues --   -0.84319  -0.75010  -0.70736  -0.66448  -0.56554
 Alpha  occ. eigenvalues --   -0.55886  -0.48900  -0.47027  -0.43185  -0.42042
 Alpha  occ. eigenvalues --   -0.38326  -0.34999  -0.34590  -0.34073  -0.33976
 Alpha  occ. eigenvalues --   -0.32187  -0.31335  -0.22958
 Alpha virt. eigenvalues --    0.02506   0.05328   0.05837   0.09533   0.09767
 Alpha virt. eigenvalues --    0.11372   0.12444   0.13353   0.14131   0.14634
 Alpha virt. eigenvalues --    0.17195   0.18074   0.20417   0.22354   0.26512

 Mulliken charges:
               1
     1  S   -0.052954
     2  C   -0.217789
     3  C    0.059776
     4  C    0.084815
     5  C    0.014050
     6  C    0.010384
     7  H    0.033232
     8  H    0.010606
     9  H    0.005493
    10  H   -0.000541
    11  H    0.001871
    12  H    0.003075
    13  H    0.001051
    14  H    0.003020
    15  H   -0.001760
    16  H    0.045671
 Sum of Mulliken charges =  -0.00000

 Dipole moment (field-independent basis, Debye):
    X=             -0.1599    Y=              0.7779    Z=              1.3518  Tot=              1.5678
 Quadrupole moment (field-independent basis, Debye-Ang):
   XX=            -42.9828   YY=            -48.4629   ZZ=            -49.3662
   XY=             -0.1013   XZ=             -0.4848   YZ=             -2.3969

  Exact polarizability:  70.537   2.621  64.465   8.068   8.898  67.605
 Approx polarizability:  98.677   2.404  88.778   5.425   7.444  96.738

                      1                      2                      3
                      A                      A                      A
 Frequencies --     32.1759               166.7798               207.3782
 Red. masses --      1.5727                 2.5533                 1.0920
 Frc consts  --      0.0010                 0.0418                 0.0277
 IR Inten    --      0.0549                 0.2661                16.6704
 Raman Activ --      0.0072                 0.2578                 7.8994

                      4                      5                      6
                      A                      A                      A
 Frequencies --    251.9163               372.0486               465.0980
 Red. masses --      3.3139                 4.6060                 2.1584
 Frc consts  --      0.1239                 0.3756                 0.2751
 IR Inten    --      2.8270                 1.2916                 0.5899
 Raman Activ --      0.7464                 4.6683                 3.4888

                      7                      8                      9
                      A                      A                      A
 Frequencies --    626.3688               740.8781               812.7639
 Red. masses --      2.5032                 1.3533                 1.8884
 Frc consts  --      0.5786                 0.4377                 0.7350
 IR Inten    --      0.4841                 1.8480                 1.3200
 Raman Activ --      1.2295                 3.4179                 3.5491

                     10                     11                     12
                      A                      A                      A
 Frequencies --    827.3268               876.2237               895.3105
 Red. masses --      1.9713                 1.4736                 2.6690
 Frc consts  --      0.7950                 0.6666                 1.2605
 IR Inten    --      3.3062                 3.4694                 1.4494
 Raman Activ --     11.6736                 5.5650                10.8949

                     13                     14                     15
                      A                      A                      A
 Frequencies --    935.5449               960.5359               977.8043
 Red. masses --      2.0307                 1.8579                 1.4152
 Frc consts  --      1.0472                 1.0099                 0.7972
 IR Inten    --      0.9006                 2.0585                 0.1322
 Raman Activ --      4.5885                 2.1845                 3.9676

                     16                     17                     18
                      A                      A                      A
 Frequencies --    990.5691              1054.8134              1116.9880
 Red. masses --      1.4224                 2.0133                 2.4598
 Frc consts  --      0.8223                 1.3198                 1.8082
 IR Inten    --      0.1678                 0.5944                 0.4810
 Raman Activ --      1.7756                 8.9289                 2.4141

                     19                     20                     21
                      A                      A                      A
 Frequencies --   1162.1174              1192.8804              1224.4192
 Red. masses --      1.2932                 1.4807                 1.4460
 Frc consts  --      1.0290                 1.2414                 1.2773
 IR Inten    --      3.8172                 0.3153                 5.1550
 Raman Activ --     11.6744                 1.6321                 4.4091

                     22                     23                     24
                      A                      A                      A
 Frequencies --   1250.2653              1266.2516              1287.5612
 Red. masses --      1.2137                 1.3033                 1.2777
 Frc consts  --      1.1178                 1.2312                 1.2480
 IR Inten    --      2.3087                11.4003                 0.3528
 Raman Activ --      8.0653                 2.6157                 4.6252

                     25                     26                     27
                      A                      A                      A
 Frequencies --   1314.5016              1328.5100              1340.6956
 Red. masses --      1.2429                 1.3876                 1.3691
 Frc consts  --      1.2653                 1.4429                 1.4499
 IR Inten    --      2.3277                 0.3090                 1.0101
 Raman Activ --      8.5011                 0.4450                 3.7735

                     28                     29                     30
                      A                      A                      A
 Frequencies --   1351.4415              1458.8036              1469.6052
 Red. masses --      1.5338                 1.0765                 1.0979
 Frc consts  --      1.6504                 1.3498                 1.3971
 IR Inten    --      2.1464                 0.1613                 2.8192
 Raman Activ --      3.4853                24.9813                 5.4868

                     31                     32                     33
                      A                      A                      A
 Frequencies --   1471.6233              1492.6630              2663.9057
 Red. masses --      1.0872                 1.1098                 1.0385
 Frc consts  --      1.3872                 1.4569                 4.3421
 IR Inten    --      5.1115                 1.2740                10.3466
 Raman Activ --      7.5985                10.2297               148.4323

                     34                     35                     36
                      A                      A                      A
 Frequencies --   3038.4662              3043.2687              3047.9160
 Red. masses --      1.0708                 1.0676                 1.0649
 Frc consts  --      5.8246                 5.8256                 5.8284
 IR Inten    --      9.1319                 7.5128                24.9212
 Raman Activ --     94.1364                84.0682                59.1267

                     37                     38                     39
                      A                      A                      A
 Frequencies --   3051.4153              3061.1870              3090.2716
 Red. masses --      1.0755                 1.0647                 1.1043
 Frc consts  --      5.9004                 5.8786                 6.2134
 IR Inten    --     33.8295                36.6404                15.7305
 Raman Activ --     30.9466               193.3757                25.4852

                     40                     41                     42
                      A                      A                      A
 Frequencies --   3101.0334              3106.1851              3115.8061
 Red. masses --      1.1055                 1.1037                 1.1055
 Frc consts  --      6.2633                 6.2743                 6.3233
 IR Inten    --      5.1037                17.0088                57.4148
 Raman Activ --    126.0236               113.6501                70.2177

 - Thermochemistry -
 -------------------
 Temperature   298.150 Kelvin.  Pressure   1.00000 Atm.
 Atom     1 has atomic number 16 and mass  31.97207

 Molecular mass:   102.05032 amu.
 Principal axes and moments of inertia in atomic units:
                           1         2         3
     Eigenvalues --   286.73723 992.133641195.74492
           X            0.49370   0.76100  -0.42088
           Y            0.54108  -0.64769  -0.53640
           Z            0.68080  -0.03709   0.73153
 This molecule is an asymmetric top.
 Rotational symmetry number  1.
 Rotational temperatures (Kelvin)      0.30207     0.08730     0.07244
 Rotational constants (GHZ):           6.29406     1.81905     1.50930
 Zero-point vibrational energy     366304.4 (Joules/Mol)
                                   87.54886 (Kcal/Mol)
 Warning -- explicit consideration of   6 degrees of freedom as
           vibrations may cause significant error
 Vibrational temperatures:     46.29   239.96   298.37   362.45   535.29
          (Kelvin)            669.17   901.20  1065.96  1169.38  1190.34
                             1260.69  1288.15  1346.04  1382.00  1406.84
                             1425.21  1517.64  1607.09  1672.03  1716.29
                             1761.66  1798.85  1821.85  1852.51  1891.27
                             1911.43  1928.96  1944.42  2098.89  2114.43
                             2117.34  2147.61  3832.76  4371.67  4378.58
                             4385.27  4390.30  4404.36  4446.21  4461.69
                             4469.10  4482.94

 Zero-point correction=                           0.139518 (Hartree/Particle)
 Thermal correction to Energy=                    0.146336
 Thermal correction to Enthalpy=                  0.147280
 Thermal correction to Gibbs Free Energy=         0.107773
 Sum of electronic and zero-point Energies=           -594.380628
 Sum of electronic and thermal Energies=              -594.373810
 Sum of electronic and thermal Enthalpies=            -594.372866
 Sum of electronic and thermal Free Energies=         -594.412373

                     E (Thermal)             CV                S
                      KCal/Mol        Cal/Mol-Kelvin    Cal/Mol-Kelvin
 Total                   91.827             24.518             83.149
 Electronic               0.000              0.000              0.000
 Translational            0.889              2.981             39.779
 Rotational               0.889              2.981             27.322
 Vibrational             90.050             18.556             16.049
 Vibration     1          0.594              1.983              5.691
 Vibration     2          0.624              1.883              2.471
 Vibration     3          0.641              1.829              2.067
 Vibration     4          0.664              1.760              1.717
 Vibration     5          0.744              1.530              1.071
 Vibration     6          0.823              1.327              0.751

 Optimization completed.
    -- Stationary point found.
 Normal termination of Gaussian 09 at Thu Jul  9 20:42:35 2020.
