 Gaussian 09, Revision E.01,
 Gaussian 09:  ES64L-G09RevE.01 30-Nov-2015

 -------------------------------------------------------------------
 #P Geom=AllCheck Guess=TCheck SCRF=Check GenChk RB3LYP/def2SVP Freq
 -------------------------------------------------------------------

 Structure from the checkpoint file:  "cas_1074-36-8_spid_86425.chk"
 -------
 comment
 -------
 Charge =  0 Multiplicity = 1

                          Input orientation:
 ---------------------------------------------------------------------
 Center     Atomic      Atomic             Coordinates (Angstroms)
 Number     Number       Type             X           Y           Z
 ---------------------------------------------------------------------
      1         16           0        1.575931    3.219450   -0.064132
      2          8           0       -0.849428   -3.174536    0.361693
      3          8           0       -2.631558   -2.077675   -0.376301
      4          6           0       -0.660680   -0.787649   -0.031520
      5          6           0        0.741789   -0.775414   -0.009938
      6          6           0       -1.342311    0.438325   -0.089739
      7          6           0        0.759772    1.647839   -0.055998
      8          6           0        1.449029    0.425210   -0.021390
      9          6           0       -0.647226    1.641054   -0.092578
     10          6           0       -1.476955   -2.044047   -0.040340
     11          1           0        1.311979   -1.709002   -0.016216
     12          1           0       -2.432657    0.421672   -0.131247
     13          1           0        2.540897    0.408524   -0.012623
     14          1           0       -1.194262    2.586017   -0.127690
     15          1           0        2.840350    2.743465   -0.031331
     16          1           0        0.015230   -2.963234    0.739348
 ---------------------------------------------------------------------

 SCF Done:  E(RB3LYP) =  -818.625128864     A.U. after    1 cycles

 Alpha  occ. eigenvalues --  -88.87211 -19.18057 -19.11715 -10.31851 -10.24917
 Alpha  occ. eigenvalues --  -10.22656 -10.22076 -10.21702 -10.21582 -10.21480
 Alpha  occ. eigenvalues --   -7.96726  -5.93656  -5.93256  -5.92627  -1.09146
 Alpha  occ. eigenvalues --   -1.00869  -0.88405  -0.81164  -0.76804  -0.73350
 Alpha  occ. eigenvalues --   -0.64031  -0.63357  -0.60900  -0.56826  -0.50241
 Alpha  occ. eigenvalues --   -0.48927  -0.46786  -0.45534  -0.44969  -0.43886
 Alpha  occ. eigenvalues --   -0.41895  -0.40167  -0.38141  -0.37377  -0.36093
 Alpha  occ. eigenvalues --   -0.32844  -0.31473  -0.28487  -0.27857  -0.24055
 Alpha virt. eigenvalues --   -0.05963  -0.03670  -0.00184   0.03312   0.04233
 Alpha virt. eigenvalues --    0.05852   0.08841   0.09628   0.13591   0.14236
 Alpha virt. eigenvalues --    0.14885   0.20977   0.24072   0.25474   0.26428

 Mulliken charges:
               1
     1  S    0.040366
     2  O   -0.163318
     3  O   -0.187194
     4  C   -0.042573
     5  C   -0.020120
     6  C    0.012352
     7  C   -0.046131
     8  C    0.007168
     9  C    0.027326
    10  C    0.181788
    11  H   -0.023257
    12  H    0.008861
    13  H   -0.021570
    14  H   -0.007004
    15  H    0.062501
    16  H    0.170806
 Sum of Mulliken charges =  -0.00000

 Dipole moment (field-independent basis, Debye):
    X=              4.5587    Y=              1.8234    Z=              0.9909  Tot=              5.0089
 Quadrupole moment (field-independent basis, Debye-Ang):
   XX=            -65.1551   YY=            -69.8990   ZZ=            -66.8074
   XY=             -9.9715   XZ=             -0.9844   YZ=             -2.5873

  Exact polarizability: 113.292  24.320 131.751   4.119  -2.720  43.575
 Approx polarizability: 198.689  29.902 208.755  10.031  -4.104  69.390

 Summary of Natural Population Analysis:

                                       Natural Population
                Natural  -----------------------------------------------
    Atom  No    Charge         Core      Valence    Rydberg      Total
 -----------------------------------------------------------------------
      S    1    0.04011      9.99907     5.93188    0.02895    15.95989
      O    2   -0.69109      1.99969     6.68027    0.01113     8.69109
      O    3   -0.57932      1.99972     6.56899    0.01061     8.57932
      C    4   -0.20007      1.99877     4.18348    0.01781     6.20007
      C    5   -0.20020      1.99892     4.18602    0.01525     6.20020
      C    6   -0.15677      1.99893     4.14142    0.01643     6.15677
      C    7   -0.14497      1.99882     4.12687    0.01927     6.14497
      C    8   -0.23533      1.99884     4.22017    0.01631     6.23533
      C    9   -0.22875      1.99886     4.21298    0.01692     6.22875
      C   10    0.84191      1.99919     3.10763    0.05127     5.15809
      H   11    0.21655      0.00000     0.77991    0.00354     0.78345
      H   12    0.25015      0.00000     0.74593    0.00392     0.74985
      H   13    0.22806      0.00000     0.76943    0.00250     0.77194
      H   14    0.23490      0.00000     0.76220    0.00290     0.76510
      H   15    0.14973      0.00000     0.84444    0.00583     0.85027
      H   16    0.47508      0.00000     0.51887    0.00605     0.52492
 =======================================================================
   * Total *    0.00000     27.99081    51.78050    0.22870    80.00000

                      1                      2                      3
                      A                      A                      A
 Frequencies --     67.3848                86.5180               171.4841
 Red. masses --      5.2343                 9.9944                 2.7466
 Frc consts  --      0.0140                 0.0441                 0.0476
 IR Inten    --      3.5063                 3.0934                 9.5552
 Raman Activ --      1.8323                 0.8223                 3.2791

                      4                      5                      6
                      A                      A                      A
 Frequencies --    174.1093               254.0240               298.1180
 Red. masses --      1.4968                 5.4963                 5.8976
 Frc consts  --      0.0267                 0.2090                 0.3088
 IR Inten    --     11.6146                 8.5472                 7.6143
 Raman Activ --      4.1034                 1.2674                 0.4513

                      7                      8                      9
                      A                      A                      A
 Frequencies --    313.6846               418.3008               462.6729
 Red. masses --      7.8970                 2.8732                 1.9733
 Frc consts  --      0.4578                 0.2962                 0.2489
 IR Inten    --      1.6258                 0.9130                29.7405
 Raman Activ --      4.2265                 0.3460                 1.6765

                     10                     11                     12
                      A                      A                      A
 Frequencies --    485.8346               513.3484               537.7024
 Red. masses --      1.9657                 3.0513                 5.5008
 Frc consts  --      0.2734                 0.4738                 0.9370
 IR Inten    --     49.9119                27.4232                10.0609
 Raman Activ --      1.0296                 0.5590                 1.0485

                     13                     14                     15
                      A                      A                      A
 Frequencies --    646.7133               702.6785               704.7610
 Red. masses --      6.9303                 7.5295                 3.8794
 Frc consts  --      1.7078                 2.1904                 1.1353
 IR Inten    --      0.9235                 3.9638                12.9260
 Raman Activ --      5.7135                 0.7432                 0.2252

                     16                     17                     18
                      A                      A                      A
 Frequencies --    774.4783               810.6059               837.6419
 Red. masses --      3.2939                 7.0199                 1.4351
 Frc consts  --      1.1641                 2.7177                 0.5933
 IR Inten    --     25.2416                14.6813                 3.0565
 Raman Activ --      1.6331                16.0809                 2.0439

                     19                     20                     21
                      A                      A                      A
 Frequencies --    868.5716               938.4810               973.2067
 Red. masses --      1.6161                 1.1225                 1.3832
 Frc consts  --      0.7183                 0.5825                 0.7719
 IR Inten    --     10.9321                12.2706                 0.1334
 Raman Activ --      1.2794                16.9427                 1.0683

                     22                     23                     24
                      A                      A                      A
 Frequencies --   1014.0378              1026.2045              1115.1862
 Red. masses --      1.3877                 3.0433                 3.8574
 Frc consts  --      0.8408                 1.8883                 2.8264
 IR Inten    --      1.4293                 9.8051                 6.9433
 Raman Activ --      0.7388                 0.3238                 8.9742

                     25                     26                     27
                      A                      A                      A
 Frequencies --   1128.8750              1137.3714              1200.7445
 Red. masses --      2.6600                 1.3995                 1.1651
 Frc consts  --      1.9972                 1.0667                 0.9897
 IR Inten    --     72.8898                 4.5316                14.5933
 Raman Activ --     56.7314                 0.5292                21.9574

                     28                     29                     30
                      A                      A                      A
 Frequencies --   1206.5199              1317.4261              1337.8795
 Red. masses --      1.4747                 1.2965                 3.7247
 Frc consts  --      1.2648                 1.3258                 3.9281
 IR Inten    --     66.2473                 5.7016               461.1677
 Raman Activ --     16.8178                 2.7314                65.7573

                     31                     32                     33
                      A                      A                      A
 Frequencies --   1361.3614              1443.9560              1526.0228
 Red. masses --      7.8228                 3.3113                 2.5152
 Frc consts  --      8.5420                 4.0677                 3.4511
 IR Inten    --    117.7395                27.6622                10.2262
 Raman Activ --     11.4194                 2.6519                 2.6061

                     34                     35                     36
                      A                      A                      A
 Frequencies --   1615.6482              1658.3645              1865.7584
 Red. masses --      7.0370                 6.1340                11.1039
 Frc consts  --     10.8225                 9.9392                22.7738
 IR Inten    --      5.1011               123.5211               326.7649
 Raman Activ --      4.9121               223.0913               124.6570

                     37                     38                     39
                      A                      A                      A
 Frequencies --   2683.3060              3162.1709              3186.5982
 Red. masses --      1.0384                 1.0891                 1.0910
 Frc consts  --      4.4053                 6.4165                 6.5271
 IR Inten    --      1.0253                11.6335                 2.1538
 Raman Activ --    130.0224                66.0433                66.6456

                     40                     41                     42
                      A                      A                      A
 Frequencies --   3190.7185              3214.2250              3812.5638
 Red. masses --      1.0946                 1.0945                 1.0654
 Frc consts  --      6.5656                 6.6625                 9.1244
 IR Inten    --      4.7422                 0.7493                36.9952
 Raman Activ --    102.2170               104.3222                35.1876

 - Thermochemistry -
 -------------------
 Temperature   298.150 Kelvin.  Pressure   1.00000 Atm.
 Atom     1 has atomic number 16 and mass  31.97207

 Molecular mass:   154.00885 amu.
 Principal axes and moments of inertia in atomic units:
                           1         2         3
     Eigenvalues --   476.997363258.719403715.02016
           X            0.49561   0.86194  -0.10694
           Y            0.86848  -0.49034   0.07282
           Z           -0.01032   0.12897   0.99160
 This molecule is an asymmetric top.
 Rotational symmetry number  1.
 Warning -- assumption of classical behavior for rotation
           may cause significant error
 Rotational temperatures (Kelvin)      0.18158     0.02658     0.02331
 Rotational constants (GHZ):           3.78355     0.55382     0.48580
 Zero-point vibrational energy     300533.4 (Joules/Mol)
                                   71.82920 (Kcal/Mol)
 Warning -- explicit consideration of  12 degrees of freedom as
           vibrations may cause significant error
 Vibrational temperatures:     96.95   124.48   246.73   250.50   365.48
          (Kelvin)            428.92   451.32   601.84   665.68   699.01
                              738.59   773.63   930.48  1011.00  1013.99
                             1114.30  1166.28  1205.18  1249.68  1350.26
                             1400.23  1458.97  1476.48  1604.50  1624.20
                             1636.42  1727.60  1735.91  1895.48  1924.91
                             1958.69  2077.53  2195.60  2324.55  2386.01
                             2684.41  3860.67  4549.65  4584.80  4590.73
                             4624.55  5485.42

 Zero-point correction=                           0.114467 (Hartree/Particle)
 Thermal correction to Energy=                    0.123518
 Thermal correction to Enthalpy=                  0.124462
 Thermal correction to Gibbs Free Energy=         0.079593
 Sum of electronic and zero-point Energies=           -818.510662
 Sum of electronic and thermal Energies=              -818.501611
 Sum of electronic and thermal Enthalpies=            -818.500666
 Sum of electronic and thermal Free Energies=         -818.545536

                     E (Thermal)             CV                S
                      KCal/Mol        Cal/Mol-Kelvin    Cal/Mol-Kelvin
 Total                   77.509             33.606             94.437
 Electronic               0.000              0.000              0.000
 Translational            0.889              2.981             41.005
 Rotational               0.889              2.981             30.136
 Vibrational             75.731             27.644             23.295
 Vibration     1          0.598              1.970              4.228
 Vibration     2          0.601              1.959              3.737
 Vibration     3          0.626              1.878              2.419
 Vibration     4          0.627              1.874              2.391
 Vibration     5          0.665              1.756              1.702
 Vibration     6          0.691              1.677              1.427
 Vibration     7          0.702              1.648              1.343
 Vibration     8          0.781              1.430              0.898
 Vibration     9          0.820              1.333              0.758
 Vibration    10          0.842              1.281              0.695
 Vibration    11          0.868              1.220              0.626
 Vibration    12          0.893              1.167              0.570

 Normal termination of Gaussian 09 at Thu Jun  6 11:43:05 2019.
